2
Lattice="2.5102669943090916 0.0 0.0 -1.2551334971545458 2.17395498735328 0.0 0.0 0.0 15.0" Properties=species:S:1:pos:R:3 energy=-17.64154433799843 dipole="-0.5038009264932726 0.2908696005288735 -2.816391151963226e-15" free_energy=-17.64154433799843 pbc="T T F"
B        0.00000000       1.44930332       7.50000000
N        1.25513350       0.72465166       7.50000000
